9.96315084795424	0.0	0.0	-3.51405788335833	10.3436508388822	0.0	-5.550921583782926E-008	-4.947984218854213E-005	2.99999999952074	
8.81754840379205	0.0	0.0	-4.44368738017561	13.8924927385779	0.0	4.987144819333245E-007	-2.271671253917161E-003	2.99999891665077	
12.5478050250070	0.0	0.0	-5.35231421614935	7.38935513595086	0.0	2.225521466066815E-006	-2.434237202323949E-004	2.99999992072475	
11.6484975886654	0.0	0.0	-4.77168328191634	8.11868558796552	0.0	-1.372386380261892E-015	-9.572436193097384E-015	2.99999999999998	
15.6883939604358	0.0	0.0	-0.686576442566873	7.41297099606311	0.0	-7.187123457779472E-008	3.152397911580701E-005	2.99999999778534	
14.8297289308773	0.0	0.0	-5.91477506092683	8.77620636730831	0.0	3.971505325399106E-005	-4.820708894202817E-002	2.99956232380987	
15.3493846101231	0.0	0.0	-9.16780557412828	7.05921663079000	0.0	6.493139521647041E-005	-2.284793522695919E-002	2.99987676383086	
10.8176556219080	0.0	0.0	-5.26936441639948	9.08379950479732	0.0	-2.559048826502322E-008	1.000563092309542E-003	2.99999977459732	
11.4631536803073	0.0	0.0	-4.20244742175931	7.81956993616080	0.0	-4.089398697512583E-007	3.040619997467626E-004	2.99999998380864	
17.0334591216053	0.0	0.0	-7.17589343245022	6.80319492744422	0.0	9.953133627870720E-005	-6.296387817158682E-002	2.99886411184976	
13.1150753837303	0.0	0.0	-2.77465920296117	8.76863820895402	0.0	-3.000635924169390E-009	-7.364736832344933E-006	2.99999999997190	
11.3745636144049	0.0	0.0	-4.30990921245873	8.43081395461071	0.0	-4.989871512116283E-009	-3.933785750801871E-006	2.99999999999275	
13.3938660338029	0.0	0.0	-2.84623443825739	8.90020155446403	0.0	3.828918080655701E-008	3.083517474117838E-004	2.99999998231529	
10.8398968291256	0.0	0.0	-4.38490218390732	8.94243029645907	0.0	1.077423635946031E-008	1.302391983709643E-005	2.99999999996098	
11.6551932078174	0.0	0.0	-4.80296642521220	7.80930218665384	0.0	-2.862136575593437E-008	4.062760398584164E-005	2.99999999956423	
11.2608008638042	0.0	0.0	-4.56471986585016	7.96154949053209	0.0	2.373453469184192E-006	-1.390716193618309E-003	2.99999966722430	
10.3958076303830	0.0	0.0	-3.72894828427082	8.68786183645999	0.0	6.256597630178175E-007	4.385791789077533E-004	2.99999996154593	
10.9210018019317	0.0	0.0	-3.48189946781446	8.60594520762802	0.0	-3.058870942749027E-009	-8.954154083077071E-005	2.99999999858292	
11.8895702447509	0.0	0.0	-5.53252587970374	8.27295043318268	0.0	-1.450922341422406E-006	-2.214004909429831E-005	2.99999982665121	
12.1640686175793	0.0	0.0	-4.28512767771013	7.99128395976543	0.0	-3.287503725691318E-007	-8.418441323287085E-005	2.99999999825378	
17.0074229945692	0.0	0.0	-11.6736833853839	6.73082825805857	0.0	3.799684439199533E-004	-0.167318266942178	2.99511410721701	
11.2542229741662	0.0	0.0	-4.83946143505943	10.0813101058421	0.0	5.314126831365856E-008	-1.197472679854880E-005	2.99999999993804	
11.5207250869307	0.0	0.0	-4.63299055680091	7.85045113852441	0.0	-1.947955134488764E-008	-1.338529145007305E-004	2.99999999619280	
10.7471844886438	0.0	0.0	-8.91253013660209	12.5498422086072	0.0	-2.035819227725822E-007	1.442952514758918E-004	2.99999999381591	
14.0451695683689	0.0	0.0	-3.24382734598613	8.30916014734342	0.0	-7.292888746081202E-007	-1.914292721829326E-004	2.99999977369511	
13.4045550967302	0.0	0.0	-3.80052321843127	8.69344176610435	0.0	-7.977840085546674E-008	-1.254402053001339E-004	2.99999999472287	
11.2090611694325	0.0	0.0	-4.13372186065165	8.04861408515304	0.0	1.777995366047641E-008	-9.139946053483259E-006	2.99999999998189	
15.2773606594877	0.0	0.0	-7.68849529249074	6.68786966864307	0.0	-8.404401745459651E-005	-4.364445727794896E-003	2.99956933159509	
13.7617745755381	0.0	0.0	-4.38709320984251	8.37131224213825	0.0	-1.572614354298054E-007	-5.630390724915954E-004	2.99999994113480	
11.5738552716915	0.0	0.0	0.131322997184698	11.0421427422219	0.0	9.002790952667821E-008	1.219410728879055E-004	2.99999999725686	
10.5311939109494	0.0	0.0	-4.16523521621627	9.16049518894135	0.0	-5.985230369322263E-008	-1.161887464320353E-004	2.99999999484077	
11.0166364862301	0.0	0.0	-4.23981310416292	7.89090266751317	0.0	8.042818538688121E-008	2.376776483368655E-004	2.99999999035786	
11.6012165579912	0.0	0.0	-2.69146807257376	8.76562919498610	0.0	-7.335939887041420E-007	-1.862639745394698E-004	2.99999977402061	
10.1266323686237	0.0	0.0	-5.00910172497082	9.47758761727529	0.0	-6.778797762547090E-006	6.186751130409104E-003	2.99999333833794	
11.8046309467931	0.0	0.0	0.578233550905410	12.6373739964312	0.0	-4.147386524034456E-007	-2.127067291024913E-004	2.99999999083514	
11.9465561863330	0.0	0.0	-9.10958010830341	10.8910087062159	0.0	1.906565079156138E-005	-1.512310796358231E-002	2.99996077796124	
14.6426904000239	0.0	0.0	-5.75101391454335	7.09522614886839	0.0	-2.578855009829497E-004	-5.705670734351797E-003	2.99997335667549	
11.0784414649874	0.0	0.0	-3.96105449856686	9.29442137578176	0.0	3.701092397071468E-008	6.884566433481801E-005	2.99999999916292	
12.3694226101967	0.0	0.0	-5.19866928578088	7.53606613729702	0.0	1.119622608192119E-007	-6.936179506463151E-005	2.99999999128982	
10.4435669935724	0.0	0.0	-1.13637851700828	13.0512343745532	0.0	2.282511659419718E-008	8.734753056133120E-005	2.99999999863426	
11.3946806426481	0.0	0.0	-4.93230137902125	7.98039078700393	0.0	-1.743754673665219E-007	1.266494416223462E-004	2.99999999609741	
12.4162158157137	0.0	0.0	-4.47993070182724	7.55886881887112	0.0	7.214040456461356E-008	-2.162445658716082E-004	2.99999999297170	
11.5983272588374	0.0	0.0	-0.157511648198730	11.3458203267554	0.0	1.525812414456587E-007	3.871369410457270E-004	2.99999997319491	
12.1604508609225	0.0	0.0	-5.45414284264833	7.70301321480481	0.0	3.161977276890571E-005	-1.143775258101726E-002	2.99997189978329	
14.0313215980360	0.0	0.0	-6.50538181094467	7.11606546269602	0.0	-1.667918542501353E-005	1.242780348742183E-003	2.99999166199949	
11.4770097771057	0.0	0.0	-4.60780142359043	7.92948559125835	0.0	5.630650699847307E-008	-4.607389295697269E-005	2.99999999921675	
13.9107497324993	0.0	0.0	-4.69234220464946	7.53511552306916	0.0	-1.007124501042615E-005	1.540333244078180E-002	2.99995562748434	
11.7663765265860	0.0	0.0	-6.55795051219469	8.37276557853079	0.0	-1.111196190138178E-005	4.084015152475663E-003	2.99998323041430	
11.6439718925990	0.0	0.0	-5.24300830947355	7.88912233090808	0.0	-3.082119613668444E-007	3.003688546630034E-004	2.99999998385597	
13.2673700397173	0.0	0.0	-7.99331352371004	8.94928977782327	0.0	-3.855455668118150E-005	2.097203705972467E-002	2.99989600296009	
14.8486347030412	0.0	0.0	-0.588310598203688	7.81489185672038	0.0	-6.799047669649555E-008	-1.693449757386135E-005	2.99999999992243	
13.5589416115775	0.0	0.0	-7.41900778372797	7.85647251325802	0.0	1.280292977214783E-005	1.817356466230696E-002	2.99993315794629	
13.8179258460568	0.0	0.0	-6.18324285771044	7.31694889770743	0.0	-1.795148463320527E-005	-1.764299620989870E-003	2.99999030713397	
16.8075127904093	0.0	0.0	6.91035644634851	7.35119504593009	0.0	1.143390385918826E-003	0.445435341310421	2.96536925873427	
12.0108899039170	0.0	0.0	-5.38989837457270	8.78878722716503	0.0	1.397118016199015E-008	-1.680877874351568E-004	2.99999999321951	
10.3385063655463	0.0	0.0	-5.72518502811478	10.4518656927400	0.0	-2.189319510580136E-006	9.489262877328813E-004	2.99999977355555	
12.2815234675088	0.0	0.0	-4.93467008018548	7.45190115617620	0.0	1.157665592031648E-007	1.805615091926626E-005	2.99999997366949	
13.5136312020198	0.0	0.0	-7.07335239060739	7.15328640086396	0.0	2.399426988970886E-005	-6.271249127550881E-003	2.99998237340253	
11.6630027291674	0.0	0.0	-4.39578676109426	7.64483155574034	0.0	4.781887203300892E-008	-2.368099549173714E-005	2.99999999981501	
16.7938970491238	0.0	0.0	-6.92795957285147	5.82209368935851	0.0	1.084795343854485E-004	-5.339502440852199E-002	2.99917552969794	
12.6172256333573	0.0	0.0	-4.70181370956299	7.79182758150867	0.0	2.119725258212534E-008	-2.102673373335846E-004	2.99999999018446	
15.3324648256568	0.0	0.0	-4.49225911018585	8.68267244743226	0.0	-6.146699037883515E-008	6.111084109391619E-006	2.99999999999196	
11.6292187042541	0.0	0.0	-4.15744912802885	8.33687719107558	0.0	3.777679260934816E-008	-6.192093297875292E-006	2.99999999979552	
11.3488167494014	0.0	0.0	-4.46652395495606	7.91389440495164	0.0	1.160662297434430E-007	-1.406388394708300E-004	2.99999999655975	
14.3858229984745	0.0	0.0	-6.32249124310740	7.63916705238002	0.0	1.039626391372199E-006	-4.081133790004573E-004	2.99999993395561	
11.6519276592601	0.0	0.0	-3.22814712737893	8.06721137731990	0.0	-3.092280446138615E-007	5.206294037010681E-004	2.99999995031242	
12.6913070755825	0.0	0.0	-8.71022220149979	8.68999263354871	0.0	-3.004330615174501E-007	-1.406149516358239E-002	2.99980828104841	
12.5793146237126	0.0	0.0	-4.67072293468154	8.95916248078724	0.0	3.458495878048485E-007	7.093159750256383E-005	2.99999999777424	
11.1725905126243	0.0	0.0	3.43896751671417	10.5352508484910	0.0	1.110285123159642E-007	-2.172868182330112E-005	3.00000000003394	
11.3636215408823	0.0	0.0	-4.80852097639965	8.58707283481632	0.0	-2.262263652761719E-007	-1.402172713505029E-004	2.99999999647281	
12.9364100051780	0.0	0.0	-7.89454879597292	10.2776771126324	0.0	-8.957753499853636E-006	-6.631423835185980E-003	2.99999206215507	
17.0033615200988	0.0	0.0	-8.41059220984886	8.06096346340975	0.0	-5.050244820275644E-005	7.237293412100481E-003	2.99976466623720	
16.0401877475352	0.0	0.0	-6.27198559515804	6.89845220203230	0.0	7.640864415988014E-006	9.280170230446255E-003	2.99998189901513	
11.3238086451261	0.0	0.0	-5.23386734853300	7.63052747538759	0.0	7.614581502631455E-008	1.544656553575719E-004	2.99999999377752	
11.0817842380363	0.0	0.0	-4.51084600415664	10.8102286020945	0.0	-1.884249193963397E-006	3.066854440417641E-004	2.99999980294337	
11.4130091493847	0.0	0.0	-4.49834232999738	7.90331492910807	0.0	5.524653130713579E-008	3.610571665675077E-005	2.99999999971951	
11.2060657357216	0.0	0.0	-4.23149323265780	7.92995618711992	0.0	-1.646040256004673E-008	-2.127028046455297E-006	2.99999999999913	
12.5770671534509	0.0	0.0	-3.50928079758490	8.79571782579009	0.0	1.589776207636232E-005	-4.753137307435771E-003	2.99999094702504	
11.3192683805721	0.0	0.0	-4.52050617237354	7.67149029015435	0.0	-2.065057407527243E-006	5.694924450769456E-003	2.99999440729582	
14.0467892343670	0.0	0.0	-8.65781860150605	8.25095572004608	0.0	1.008189392476383E-005	6.566089649043771E-002	2.99907995300601	
11.1203630092738	0.0	0.0	-4.45505121005453	8.14977420299311	0.0	-1.395571212715236E-008	-3.274178194985140E-005	2.99999999965096	
13.3098092987064	0.0	0.0	-4.52157343508342	8.02093324850294	0.0	4.589183314407421E-007	-2.156706327648942E-004	2.99999998622626	
11.1027321463321	0.0	0.0	-4.53940387874141	8.44182978911917	0.0	2.222192041875282E-007	-8.099703688255425E-004	2.99999988903837	
11.1188302281027	0.0	0.0	-5.63706480375970	8.97854907417785	0.0	-1.785148211018083E-005	6.073892296811954E-003	2.99999108784622	
11.6968970539462	0.0	0.0	-3.68349459870891	8.06798367124790	0.0	4.238571683117473E-008	-1.480347789067585E-006	2.99999999979698	
12.2917021874349	0.0	0.0	-4.60117200831916	7.96678478506645	0.0	-1.032537780216052E-008	-3.724440664678766E-005	2.99999999955866	
14.2045601249510	0.0	0.0	-7.74196774939947	6.97932249901791	0.0	5.712973400563003E-005	7.721889794583787E-003	2.99953436151400	
12.6935689458286	0.0	0.0	-2.72509656724683	8.94911050693729	0.0	-5.958615092488907E-007	2.213082841360275E-004	2.99999999015842	
11.5033765564077	0.0	0.0	-4.00640872913741	8.05711339905085	0.0	-4.606692419920021E-008	-6.736773729982851E-005	2.99999999910391	
11.1318697076709	0.0	0.0	-4.67983006164127	8.13136438159950	0.0	-1.375242081849558E-007	4.237535053194589E-005	2.99999999941951	
11.2515602329276	0.0	0.0	-4.22889622342594	8.05691099279988	0.0	1.156704913464159E-008	-8.095022699033789E-006	2.99999999998249	
13.6572024045702	0.0	0.0	-3.09389071658173	8.49286049000133	0.0	-1.019965427761307E-007	6.279295844094911E-005	2.99999999663321	
12.4621599570580	0.0	0.0	-1.24286396115111	9.48035625287744	0.0	1.625607370074336E-007	-5.914398214375897E-005	2.99999998438571	
11.5718051142845	0.0	0.0	-4.08706134127076	7.69640682817468	0.0	-8.826331687533648E-008	-8.100682761508600E-005	2.99999999879825	
11.4577197848169	0.0	0.0	-4.62162765539482	7.89069887251683	0.0	3.571729820747258E-008	-1.653362611007004E-004	2.99999999518911	
10.8623579454319	0.0	0.0	-1.29615245379741	10.6252046572346	0.0	-6.116932393157861E-007	-1.878978676183751E-004	2.99999998887434	
14.3172604459313	0.0	0.0	-5.53620206705873	7.30571605709978	0.0	-1.728186421309749E-006	2.989502277110793E-003	2.99999742153377	
10.2093305073094	0.0	0.0	-3.99927765333006	8.29478654223483	0.0	-1.670399455876598E-007	1.247604182345259E-004	2.99999999638169	
11.7114696785944	0.0	0.0	-4.41098630634174	7.88584545244898	0.0	-1.980116226561346E-008	8.093905652134886E-005	2.99999999883568	
11.2769232911461	0.0	0.0	-4.81345453634558	8.00586722652770	0.0	-1.137596202445810E-007	1.047466394138816E-004	2.99999999752592	
11.3315885874701	0.0	0.0	-4.58308726778358	7.97588981142694	0.0	-2.089479895154927E-008	5.653170998125371E-006	2.99999999998549	
12.1948157759286	0.0	0.0	-4.58308720184956	7.83839572511281	0.0	3.182739766392060E-008	3.482702421007426E-005	2.99999999971286	
13.3205327682306	0.0	0.0	-6.89271196684356	7.71022027494107	0.0	-2.593010868528200E-005	2.799075297321744E-002	2.99983557371092	
11.8608343536954	0.0	0.0	-3.74128919019039	8.41795862159827	0.0	-1.259056990849292E-007	1.916078997269660E-004	2.99999999315750	
12.9196495175746	0.0	0.0	-5.78383320932387	7.32371735197863	0.0	2.180583575555998E-006	1.848525034415300E-002	2.99993404721537	
11.2677655520913	0.0	0.0	-4.70381884571446	8.02230935459643	0.0	1.803082398405657E-007	5.172027083793576E-005	2.99999999933316	
11.4384163761507	0.0	0.0	-4.76448340473165	7.80433471706875	0.0	7.693130900946059E-007	1.094809524376094E-004	2.99999999092397	
11.7088611125908	0.0	0.0	-4.26669823297164	8.05586561484238	0.0	-3.298989182835769E-007	8.118146742355454E-004	2.99999988714272	
11.8385980920830	0.0	0.0	-4.53270148264976	8.08634845971906	0.0	-2.495752272515792E-006	-2.016641130056514E-003	2.99999920948874	
12.9119966455375	0.0	0.0	-3.37013946486051	8.16705303147657	0.0	1.624424396808391E-007	-4.261412080539701E-007	2.99999999907268	
12.3160451588578	0.0	0.0	-6.04684223817375	8.11443952804994	0.0	1.974340824645070E-006	-5.453242964837992E-005	2.99999979631115	
12.0017177848310	0.0	0.0	3.65981877264761	8.43685610842403	0.0	-9.721628624078094E-008	5.174742093946347E-006	2.99999999933283	
11.7357960087819	0.0	0.0	-4.82615795780825	7.74538831647980	0.0	-2.579821754114066E-006	4.304608091619138E-003	2.99999674837816	
12.8857048573243	0.0	0.0	-3.01960986672694	10.7573231641192	0.0	1.989273724001343E-007	2.887396004595890E-005	2.99999999972692	
12.8625507262804	0.0	0.0	-7.18522593358072	8.29245725422814	0.0	-1.770446666830861E-005	3.663692995878731E-002	2.99976694484598	
11.8056080100382	0.0	0.0	-3.90321921389276	9.20693380578403	0.0	-1.463692096367682E-008	-1.244600508430332E-005	2.99999999997063	
10.8871977450999	0.0	0.0	-8.15363229036583	10.5620701362659	0.0	-2.187077447523166E-005	-2.943727564661009E-003	2.99993869797875	
12.2000765152481	0.0	0.0	-5.19454332472312	7.66807391203349	0.0	7.737778169447915E-007	1.892478730689373E-004	2.99999992524100	
12.5171753845114	0.0	0.0	-3.18109031499420	8.58632756047603	0.0	-1.482885552189684E-004	-2.773161855101330E-003	2.99995779387860	
9.98999538821238	0.0	0.0	-7.17426917204481	9.66441074716754	0.0	8.621103250877289E-006	7.877211952122506E-003	2.99998818075611	
12.1232363949977	0.0	0.0	-4.13482067044101	8.64889912870527	0.0	-1.315527309738886E-007	1.902363515100778E-004	2.99999999324172	
11.5476864915658	0.0	0.0	-4.81624912948961	7.80067667162622	0.0	8.482069338022833E-008	6.206985219673253E-007	2.99999999995961	
13.6746751589396	0.0	0.0	-4.61418521698206	7.53547089506266	0.0	-2.557117326528119E-007	-4.452446183622992E-004	2.99999995724364	
11.5305180666145	0.0	0.0	-8.06333255342956	9.27417186444827	0.0	-2.281313366519300E-004	2.828937466065064E-002	2.99982808754415	
15.3199757918090	0.0	0.0	-6.51779592368951	7.52022552302461	0.0	2.125590681285182E-005	1.454047667149990E-002	2.99993294671809	
11.5740706012329	0.0	0.0	-4.99436832844424	7.98330424159444	0.0	4.421811235684871E-006	-7.376373735791667E-003	2.99999029602435	
11.1906915471224	0.0	0.0	-5.13178699155414	7.83765404390334	0.0	-8.953391718936901E-008	1.878397651291163E-004	2.99999999248364	
11.2041206575197	0.0	0.0	-5.50328308215260	10.0025510629063	0.0	2.580467936224208E-008	-2.151920214162717E-005	2.99999999986066	
12.5925879550750	0.0	0.0	-5.45914592652629	7.17421058559668	0.0	4.494673477106571E-007	-3.928558669819884E-004	2.99999995705975	
11.3997469888117	0.0	0.0	-5.07888158594020	7.54040279779464	0.0	-2.276063433684596E-008	-5.957751286403384E-005	2.99999999888899	
12.1550077523291	0.0	0.0	-4.88816620782988	7.60512276421196	0.0	3.265337544340562E-007	-1.432196081128361E-004	2.99999999455906	
11.1669621479477	0.0	0.0	3.49551893169632	10.5425794858110	0.0	1.110575116307111E-007	-2.176059140448246E-005	3.00000000003364	
11.6180056950492	0.0	0.0	-4.66337185601837	8.13756903989985	0.0	9.908453563919079E-008	1.019549852861492E-005	2.99999999999034	
13.6776896263813	0.0	0.0	2.57205987564333	8.25350285688023	0.0	-2.310072408861908E-007	7.726585957391410E-004	2.99999985722077	
11.2387796395485	0.0	0.0	-5.42687856690295	8.66623582163493	0.0	8.341484760515811E-007	-2.719060671688083E-003	2.99999867493422	
11.1404592962413	0.0	0.0	-4.04346782654023	8.25797543524257	0.0	-2.870900520667655E-008	-6.625448325745847E-005	2.99999999965127	
10.3633704813566	0.0	0.0	-4.97888340445703	8.91771210559709	0.0	4.192361617086505E-008	-3.415168711704756E-005	2.99999999980952	
12.2868646196992	0.0	0.0	-6.98963107453232	8.49129624895125	0.0	-2.181365100409525E-004	3.793030104742171E-002	2.99876792844992	
11.4348372110949	0.0	0.0	-4.75773876586435	8.16245442963939	0.0	1.215802491562749E-007	7.521472871794715E-006	2.99999999991142	
14.0998445786129	0.0	0.0	-0.277152928573862	10.2227509749006	0.0	3.239798794008142E-005	1.106998878062970E-004	2.99999999674155	
12.3444606876472	0.0	0.0	-2.00984784406954	9.96072534560737	0.0	2.489301139421919E-007	-1.139488916595567E-004	2.99999999553859	
12.9873731454540	0.0	0.0	-6.11891025911202	7.52952067568026	0.0	2.297908947841060E-005	-1.665187854991130E-002	2.99995121104147	
12.4656265635332	0.0	0.0	-3.02011673205794	7.72244534294107	0.0	1.516170746554337E-006	-2.145947929737605E-003	2.99999917579556	
10.8666621433395	0.0	0.0	-3.32936045455255	9.74653431963451	0.0	-4.270355546313144E-007	2.554358451200366E-006	2.99999999878487	
11.2445599263377	0.0	0.0	-4.68867398393212	7.97195146562502	0.0	2.669102434686197E-008	-2.480872715142937E-004	2.99999998887039	
13.1780561930849	0.0	0.0	5.55686970196244	8.90534160779098	0.0	1.927568435110146E-006	1.462661333775086E-003	2.99999951497644	
12.4101861663258	0.0	0.0	-5.24641250385514	7.41859668036605	0.0	1.352025306155286E-006	-7.368612674953608E-004	2.99999989685398	
13.3862575581110	0.0	0.0	-5.33027782790854	7.97823532562720	0.0	-8.147379736430872E-006	1.624330529312677E-003	2.99999941613076	
12.3644270270981	0.0	0.0	1.25932768465552	12.1816189730856	0.0	-4.370321471550308E-008	1.970804178455996E-005	2.99999999979807	
11.4222017537914	0.0	0.0	-5.13668332372984	8.60359093235692	0.0	1.870875334136679E-006	1.461646664793166E-004	2.99999999374695	
12.9622303359126	0.0	0.0	-5.35517176217599	7.61166162220035	0.0	3.115820217011257E-006	-1.983941249516839E-003	2.99999886196521	
15.5627703462379	0.0	0.0	-6.45146873406440	6.89712657117211	0.0	1.922838697553471E-004	-6.225413010746540E-002	2.99920257817412	
11.5330781354269	0.0	0.0	-4.79024754334625	7.76319795925335	0.0	7.710309837597776E-009	2.234781534365828E-004	2.99999999137214	
13.5708311199030	0.0	0.0	-0.852475466611891	9.19736507692978	0.0	-5.279447119406954E-008	-8.350965611735113E-005	2.99999999869447	
15.7937012321395	0.0	0.0	-4.23114196110427	7.64915443024946	0.0	-1.339156844087822E-006	8.355993382878610E-004	2.99999930229781	
11.2427460802821	0.0	0.0	-3.00720370847570	8.52756984371734	0.0	5.065012336199379E-007	2.407259374337839E-004	2.99999998560570	
12.8837769120468	0.0	0.0	-6.28430245007126	6.99974398467891	0.0	3.143873465458203E-005	2.688692523951779E-002	2.99978798128035	
12.7469828386192	0.0	0.0	-6.53420849918462	7.54943546844493	0.0	-1.575809718117611E-005	1.319441280286623E-003	2.99999691402485	
11.1542740184202	0.0	0.0	-5.26048982888252	8.51899076733714	0.0	9.567827503753575E-008	8.015696157437989E-005	2.99999999821948	
12.2591619877630	0.0	0.0	-4.01468864762842	9.08334676157324	0.0	-4.368215278638971E-007	5.492735658313614E-004	2.99999992417564	
11.2839549782032	0.0	0.0	-4.58632302836392	8.01178070627146	0.0	-1.833253358544293E-007	9.194189730981488E-005	2.99999999744762	
11.2636813404408	0.0	0.0	-3.93497836045479	7.91142552813750	0.0	-2.145144144340842E-009	-1.407612760498605E-004	2.99999999636692	
11.4599850710429	0.0	0.0	-7.07469393459306	8.37219364981913	0.0	6.559884996027793E-005	-1.959552315925069E-002	2.99992560768667	
15.2368736215979	0.0	0.0	-5.10431192292213	7.74230407145861	0.0	-2.541655406144538E-007	-1.158461793968523E-004	2.99999998422331	
11.4167058804344	0.0	0.0	-4.70400005850599	8.08612128715033	0.0	5.170426206122133E-008	-1.217002063051272E-005	2.99999999985215	
12.4943766322705	0.0	0.0	-5.29462442273590	7.63857385588429	0.0	7.082183442344705E-007	8.369549239914623E-004	2.99999987047476	
11.0669135999773	0.0	0.0	-4.66121513070805	8.01821820153700	0.0	-2.285322490789728E-008	-2.876827846580751E-005	2.99999999961409	
11.3922421631539	0.0	0.0	-4.50166928654819	7.95919312703189	0.0	3.255489675720573E-009	-4.258218693197440E-006	2.99999999999784	
11.6700385439554	0.0	0.0	-3.55056466388276	8.46215301406520	0.0	1.279329732273682E-009	-1.795989973543336E-004	2.99999999436653	
13.9653728617649	0.0	0.0	-3.02117010665930	8.29940219949119	0.0	-1.022370939637333E-007	6.278006629580983E-005	2.99999999663326	
11.5631777103187	0.0	0.0	-4.98629262240510	7.90973007480457	0.0	-7.416505706012282E-007	2.503616843229502E-004	2.99999998664151	
11.8174674984705	0.0	0.0	-4.74793621962364	8.00388674674015	0.0	-3.038721568364025E-015	8.210735690831419E-015	2.99999999999999	
11.2401884775402	0.0	0.0	-4.45920270138090	7.78334154735029	0.0	-2.671513280592174E-008	-2.753885617986775E-005	2.99999999973526	
12.3350402210485	0.0	0.0	-5.20036095769385	7.85324555096695	0.0	5.353305578244591E-007	-8.633205610788632E-005	2.99999999473583	
11.6134758788028	0.0	0.0	-4.74093639579404	7.65618924606331	0.0	-1.616195204731331E-007	-8.864407542569546E-005	2.99999999790753	
11.3900225366453	0.0	0.0	-5.36479542487343	8.27531196148061	0.0	3.519794649465561E-007	2.270331487422434E-006	3.00000000235872	
11.2658201390364	0.0	0.0	-4.18767361112169	8.05729965952009	0.0	-5.034841435899256E-007	-6.738981672634249E-004	2.99999992228763	
12.1009850928968	0.0	0.0	-5.98400874091846	8.06633438980041	0.0	8.087033022324882E-007	-2.337294597456939E-003	2.99999713149376	
11.4953314507935	0.0	0.0	-4.07945255802176	8.35062433536085	0.0	-5.305440163970904E-008	-3.206314143847331E-005	2.99999999948259	
11.2367468615848	0.0	0.0	-4.53956652920989	7.91025825384916	0.0	-2.567726496559667E-008	1.363198183019612E-005	2.99999999992490	
10.8928411182448	0.0	0.0	-4.43788976464170	7.91157938420539	0.0	7.496271632061758E-008	-5.223033357178255E-005	2.99999999946773	
11.6256207439487	0.0	0.0	-4.76711439339572	7.97309653810805	0.0	-1.788903288548528E-007	-1.624137517598874E-004	2.99999999527365	
10.7589709215282	0.0	0.0	-4.16796650405799	8.04981977436024	0.0	-9.276248321318369E-008	4.702840666195834E-005	2.99999999958133	
11.3937316293780	0.0	0.0	-4.72971912428093	8.03657482436383	0.0	7.587995767594770E-008	1.017103034449481E-005	2.99999999999279	
11.0993073058932	0.0	0.0	-0.946570320285397	9.47151006656831	0.0	-7.598983770463818E-006	-9.439187293731000E-003	2.99997749669769	
11.3390959794120	0.0	0.0	-4.66778849190391	7.94086503480214	0.0	-3.483041366639024E-008	1.226584549771706E-004	2.99999999739252	
11.3644297713665	0.0	0.0	-4.55939944213903	7.93211175630527	0.0	-1.954510323498104E-007	-1.113008303871053E-004	2.99999999761828	
12.8454573855953	0.0	0.0	-6.36116790163559	7.94009423969421	0.0	-3.770238663827567E-006	7.009182724460451E-003	2.99999033683788	
10.5566790395228	0.0	0.0	-3.74373416067239	10.7071085515119	0.0	-1.825941403072697E-006	2.693707248849121E-004	2.99999980654884	
11.5968029222223	0.0	0.0	-4.42672811219368	8.60826147969990	0.0	-5.965450070952574E-008	-3.867922495442296E-005	2.99999999997782	
11.1045286246474	0.0	0.0	-4.24098849374294	7.94089206594149	0.0	-8.591304374164390E-008	-4.181722125678111E-005	2.99999999947072	
12.8224377700944	0.0	0.0	-2.67401834257597	8.97397802977698	0.0	-5.993818455803041E-007	2.211528770440041E-004	2.99999999016875	
11.3296399971671	0.0	0.0	-3.74799725954180	8.83906543166717	0.0	-3.050481900737456E-007	5.239220313959394E-004	2.99999994973952	
13.9039223420593	0.0	0.0	-5.11291617943910	8.48595664097635	0.0	-6.593368734477915E-007	-7.828377174276001E-004	2.99999982924493	
11.4093029202422	0.0	0.0	-5.11292843698523	8.58746278256920	0.0	-7.740641846564779E-008	-1.761847288305399E-004	2.99999999208025	
11.5954598897641	0.0	0.0	-2.69410783774547	8.88590435028529	0.0	8.141556649965344E-010	1.191505351282450E-006	2.99999999999913	
11.6905230089256	0.0	0.0	-1.63805030996730	8.91209445583604	0.0	8.157573435861240E-010	1.161445677723976E-006	2.99999999999849	
11.2512821219816	0.0	0.0	-4.89549036984248	7.86226386493724	0.0	2.957395307498461E-007	-7.323904306050817E-006	2.99999999895847	
11.9460540262038	0.0	0.0	-5.56949945671399	7.54908381314208	0.0	9.651992184230038E-007	-1.519422217131860E-004	2.99999990648700	
11.4425245691799	0.0	0.0	-4.30754428041634	7.87809009222739	0.0	1.070452857479092E-006	-7.539632087899532E-004	2.99999988305610	
11.4033781574223	0.0	0.0	-4.57906306699271	8.05477843648266	0.0	-1.265260700604991E-008	-2.232996476186005E-005	2.99999999986799	
16.1775191473094	0.0	0.0	-9.13376981780389	6.69604485886180	0.0	1.912296723578449E-004	-7.814510592629093E-002	2.99891858655380	
12.5577814749797	0.0	0.0	-4.23428131574327	8.04672524138975	0.0	9.105500711417708E-009	-2.957955849294027E-005	2.99999999988510	
12.6307876842641	0.0	0.0	-4.19306421866754	7.55988375503510	0.0	7.933931214192292E-008	-1.628208418699434E-004	2.99999999451243	
10.6017260116286	0.0	0.0	-4.88779635673992	9.27099457788167	0.0	6.833477532921870E-007	-2.545007790414158E-003	2.99999882731406	
13.9926664994217	0.0	0.0	-9.90870966162942	8.33926514261951	0.0	-3.973150771683131E-006	-3.758178144602376E-004	2.99999110702485	
11.5389801971770	0.0	0.0	-4.42087750424287	7.71672098399171	0.0	9.057488139418742E-008	2.032069309246548E-004	2.99999999281798	
10.2915868881801	0.0	0.0	-3.57598637220305	9.04263165287400	0.0	1.256807513104544E-008	-1.027124253459098E-004	2.99999999737086	
12.7229537702552	0.0	0.0	-3.32919747210728	8.57529538259763	0.0	-2.409055184312607E-008	1.987214683371012E-004	2.99999999327940	
11.5662856889840	0.0	0.0	-4.60371332653475	7.87816559557523	0.0	3.079340501164849E-008	2.252737837046857E-005	2.99999999987422	
9.91672689645615	0.0	0.0	-5.77161925006840	10.2036785674134	0.0	9.869408545154303E-007	-1.293861165940763E-003	2.99999963149868	
13.2191228990188	0.0	0.0	-5.03679692602853	7.67204241342677	0.0	-5.749355729826851E-007	1.268790976415459E-004	2.99999997061418	
11.4759732072765	0.0	0.0	-4.63444987589069	8.03233306836173	0.0	-3.103521850019063E-008	3.682825828928435E-005	2.99999999974795	
11.4228794499220	0.0	0.0	-4.70228054489331	7.89938439379456	0.0	-9.047603321291908E-008	1.671601952434880E-004	2.99999999499049	
12.0159580948464	0.0	0.0	-4.25875741534049	8.38017612854174	0.0	5.041326123681119E-008	3.547236122386836E-005	2.99999999841115	
10.9876658197296	0.0	0.0	-4.33148645010850	7.91834752769627	0.0	-4.567399360825639E-009	5.675037258004531E-006	2.99999999998340	
11.2854272187166	0.0	0.0	-4.68219335746513	7.77753929908310	0.0	6.041910384843686E-008	1.576238897653621E-005	2.99999999985220	
11.6327775529315	0.0	0.0	-4.54490992106233	7.81019745736865	0.0	-1.332144635115069E-008	-7.356299016669947E-006	2.99999999989941	
12.8091607210692	0.0	0.0	-4.38460686122622	7.31525061602459	0.0	-5.122068870035357E-007	1.309683592458907E-003	2.99999964833528	
11.1102053482210	0.0	0.0	-5.02705810442149	8.38052326869815	0.0	9.515567032490896E-008	-4.415715071864077E-005	2.99999999955522	
11.3868001158069	0.0	0.0	-4.85442124351131	7.72165023283024	0.0	-1.690531759048483E-007	1.785754883955746E-004	2.99999997760304	
17.7232242452086	0.0	0.0	-8.95860225901541	6.78888232409266	0.0	4.703420489847155E-005	-2.726532628960547E-002	2.99974916819766	
11.4390072872559	0.0	0.0	2.27338270163655	8.92009222282993	0.0	6.017831565983938E-007	2.810114751158425E-004	2.99999998193213	
13.4040359382704	0.0	0.0	4.86047020955184	10.6503054408065	0.0	-6.503155733568669E-008	9.501718142168345E-005	2.99999999769650	
10.6892088243724	0.0	0.0	-3.15208894224575	8.67054799500225	0.0	1.022104918353737E-007	1.323416120132153E-004	2.99999999698412	
12.7003385079159	0.0	0.0	-5.24576405307567	7.49842504348640	0.0	-1.940528879084883E-006	-1.225980636240548E-003	2.99999969217538	
11.5458077514438	0.0	0.0	-4.50083101902414	7.97262548459278	0.0	-2.922330826936242E-007	-3.644914199319161E-004	2.99999997658463	
12.5743006045861	0.0	0.0	-3.74441550303431	7.88932326470873	0.0	1.389287052494842E-007	4.326707205441270E-005	2.99999999932129	
12.2482405507090	0.0	0.0	-1.86379233539261	9.17560844669943	0.0	-5.983926110145952E-007	2.159990660764444E-004	2.99999999054507	
11.9858348573037	0.0	0.0	-5.57078725936981	7.77444496442548	0.0	7.634995184852600E-006	-6.241423353861648E-003	2.99999294534958	
12.6933292401221	0.0	0.0	-3.78866119671622	8.30679169640096	0.0	4.737675836380059E-007	-9.802004713719240E-004	2.99999978900327	
11.9599484319492	0.0	0.0	-5.36778422793070	8.12982353993615	0.0	4.640502425651983E-007	-2.141623012229169E-004	2.99999997687323	