12.0472476556066	0.0	0.0	-2.81927508055725	8.76381327460687	0.0	-7.304792560967487E-007	-1.861712363053761E-004	2.99999977402544	
11.9034838664930	0.0	0.0	-2.81329251752910	8.59702232425346	0.0	-7.304792542068545E-007	-1.864781640044329E-004	2.99999977400637	
11.6704951712290	0.0	0.0	-2.99853573867238	8.40782937697436	0.0	-7.304792544465431E-007	-1.881829819142882E-004	2.99999977389992	
11.5874374594084	0.0	0.0	-3.11572856537192	8.38309359647618	0.0	-7.304792523882972E-007	-1.891043479989841E-004	2.99999977384198	
11.5744772836075	0.0	0.0	-3.15621284823201	8.44404626253009	0.0	-7.304792548803550E-007	-1.892364152989715E-004	2.99999977383365	
11.6981620571242	0.0	0.0	-3.08221264553993	8.52081353502383	0.0	-7.304792541109798E-007	-1.884913395639909E-004	2.99999977388056	
11.9584853719875	0.0	0.0	-3.05312615278877	8.47689854780718	0.0	-7.304792540162131E-007	-1.883965880153289E-004	2.99999977388651	
12.2290233823025	0.0	0.0	-3.06399067285792	8.56762722236123	0.0	-7.304792534127084E-007	-1.882425260258740E-004	2.99999977389618	
12.3422449545872	0.0	0.0	-3.10106791540999	8.73438810352623	0.0	-7.304792539197073E-007	-1.880871733827591E-004	2.99999977390592	
14.7170117114052	0.0	0.0	-3.48040081305081	8.31998395174685	0.0	-7.304792488333629E-007	-1.921712557822394E-004	2.99999977364708	
14.8240252427451	0.0	0.0	-2.91493358269895	8.19279097502252	0.0	-7.304792492087937E-007	-1.881322437081508E-004	2.99999977390309	
14.6507521982613	0.0	0.0	-2.72148370918356	8.31248199998915	0.0	-7.304792496813291E-007	-1.864869391832881E-004	2.99999977400582	
14.3891991206796	0.0	0.0	-2.89455983436649	8.26399326390765	0.0	-7.304792491424161E-007	-1.878023218237475E-004	2.99999977392376	
14.3718051139267	0.0	0.0	-2.93000152300623	8.24382539133642	0.0	-7.304792496415657E-007	-1.881097261543266E-004	2.99999977390450	
13.3198603257195	0.0	0.0	-3.16287034319706	8.05667885455298	0.0	-7.302239975736554E-007	-1.905081745164308E-004	2.99999977375340	
14.2743965118809	0.0	0.0	-3.65420754620096	8.38318795300607	0.0	-7.339708410341877E-007	-1.942976263488122E-004	2.99999977351125	
14.1331207484377	0.0	0.0	-3.63869519628218	8.34238684748287	0.0	-7.339708406364244E-007	-1.943171871423461E-004	2.99999977350998	
13.8546699861416	0.0	0.0	-3.71538624910285	8.23325453219856	0.0	-7.339708392864687E-007	-1.954170071365656E-004	2.99999977343854	
11.4671568579628	0.0	0.0	-4.68011817665312	7.99223263597796	0.0	-2.211517593886286E-008	2.812982025090334E-005	2.99999999978941	
11.4687314653384	0.0	0.0	-4.68266076606984	8.00285811444929	0.0	-2.211517538881363E-008	2.812981207427733E-005	2.99999999978940	
11.4828506708661	0.0	0.0	-4.67259697694840	8.01281978455881	0.0	-2.211517543306408E-008	2.810359011617479E-005	2.99999999978965	
11.5056622376247	0.0	0.0	-4.66329173831940	8.01961310779168	0.0	-2.211517564312658E-008	2.808346688350634E-005	2.99999999978983	
11.5241619638541	0.0	0.0	-4.65872419173021	8.02113918243175	0.0	-2.211517554933022E-008	2.807468116474770E-005	2.99999999978992	
11.5168348374340	0.0	0.0	-4.65624076394916	8.00566167254655	0.0	-2.211517859623103E-008	2.808346941131747E-005	2.99999999978983	
11.4960261614055	0.0	0.0	-4.64237671383268	7.99009020962206	0.0	-2.211517881246277E-008	2.808345871620353E-005	2.99999999978983	
11.3968325689468	0.0	0.0	-4.53847668529739	8.03174987756824	0.0	-2.211516849814612E-008	2.788616019921390E-005	2.99999999979172	
11.3984742854153	0.0	0.0	-4.57439908906967	8.03009073408519	0.0	-2.211516811092789E-008	2.793983750288617E-005	2.99999999979122	
11.4003105911218	0.0	0.0	-4.62974065442512	8.01756952311055	0.0	-2.211517145423429E-008	2.803168727348003E-005	2.99999999979036	
11.4120679064812	0.0	0.0	-4.67210728757768	7.99459123345072	0.0	-2.211517423835787E-008	2.811557123724166E-005	2.99999999978957	
11.4398804872560	0.0	0.0	-4.68317008957229	7.97305822569103	0.0	-2.211517505406224E-008	2.819305469953281E-005	2.99999999978884	
11.4841794382706	0.0	0.0	-4.65967900946795	7.95624475811804	0.0	-2.211517594760994E-008	2.812980426418400E-005	2.99999999978944	
11.5455526729297	0.0	0.0	-4.74203921889453	7.92749154714419	0.0	-4.455983710493263E-008	3.941206194619002E-005	2.99999999969726	
11.5389494807937	0.0	0.0	-4.73276958522158	7.92898172565366	0.0	-4.455983613122726E-008	3.937788532804656E-005	2.99999999969771	
11.5491824146885	0.0	0.0	-4.70560072769437	7.92677604579595	0.0	-4.455983606586020E-008	3.932256291594458E-005	2.99999999969843	
11.5706406360931	0.0	0.0	-4.67474093288088	7.91602968414185	0.0	-4.455983660193713E-008	3.927779700476000E-005	2.99999999969902	
11.5935404876669	0.0	0.0	-4.65368745065358	7.89919964072293	0.0	-4.455983751215572E-008	3.927776836336770E-005	2.99999999969902	
11.6105522737173	0.0	0.0	-4.64906278150144	7.88739010115901	0.0	-4.455983656003006E-008	3.923307098217684E-005	2.99999999969960	
11.6143748733290	0.0	0.0	-4.66296945946574	7.89408212564790	0.0	-4.455983836265175E-008	3.927780057142421E-005	2.99999999969902	
11.6019927545246	0.0	0.0	-4.69216609416594	7.91999240001564	0.0	-4.455983887963801E-008	3.927783708122325E-005	2.99999999969902	
11.5774846626886	0.0	0.0	-4.72365399958853	7.95264679462628	0.0	-4.455983872723397E-008	3.932257247377152E-005	2.99999999969843	
11.5472575980445	0.0	0.0	-4.74495294971460	7.98141330727816	0.0	-4.455983845571372E-008	3.934110029022326E-005	2.99999999969819	
11.5208866456504	0.0	0.0	-4.74956445277920	8.00168597004447	0.0	-4.455983850980529E-008	3.932256417886776E-005	2.99999999969843	
11.5072755840470	0.0	0.0	-4.73065697349644	8.00941526174936	0.0	-4.455983833608246E-008	3.927780030762435E-005	2.99999999969901	
11.5024847131370	0.0	0.0	-4.69628150721566	8.00278710093158	0.0	-4.455983805369373E-008	3.921450200746757E-005	2.99999999969984	
11.5012009769403	0.0	0.0	-4.66074644068974	7.99196609021893	0.0	-4.455983767990531E-008	3.913628251778519E-005	2.99999999970086	
11.4995349452208	0.0	0.0	-4.63451274475678	7.99285988457979	0.0	-4.455983788592513E-008	3.908791768310415E-005	2.99999999970149	
11.4884565765644	0.0	0.0	-4.62861489404893	8.00382681153063	0.0	-4.455983653011273E-008	3.906315621776847E-005	2.99999999970181	
15.8483865508256	0.0	0.0	-10.1669681716852	9.34140298458135	0.0	3.326128176152284E-004	-4.845559833560004E-002	2.99895046352278	
15.7625523689588	0.0	0.0	-10.4211087111248	8.89017739797403	0.0	3.326128176160913E-004	-5.050102571350627E-002	2.99891671676215	
15.7031394949201	0.0	0.0	-10.5247766978737	8.60638936915442	0.0	3.326128176162033E-004	-5.176939919021610E-002	2.99889508935892	
15.7121926149337	0.0	0.0	-10.6124241051930	8.51790600490032	0.0	3.326128176184597E-004	-5.235184678995532E-002	2.99888497808956	
15.6972606314765	0.0	0.0	-10.8353357777804	8.32641487869250	0.0	3.326128176179420E-004	-5.377316085170200E-002	2.99885982914266	
15.8386930327625	0.0	0.0	-10.9422575333694	8.40714702583175	0.0	3.326128176180742E-004	-5.377889187758593E-002	2.99885972637300	
15.9996248581942	0.0	0.0	-10.9525063432607	8.12204127304651	0.0	3.326128176182780E-004	-5.500098151334631E-002	2.99883756140710	
16.1705964336032	0.0	0.0	-10.9196076060310	7.87749867801317	0.0	3.326128176184248E-004	-5.599310687609640E-002	2.99881920089489	
12.6981740725636	0.0	0.0	-7.62754454489558	10.6008324370030	0.0	3.326128176223767E-004	-4.045079618051102E-002	2.99906911570272	
14.7957504831307	0.0	0.0	-10.3117491101270	8.76412785842605	0.0	3.312918551173533E-004	-4.868762473935753E-002	2.99894706881402	
14.9779320362309	0.0	0.0	-7.50697039457441	7.22078651004000	0.0	3.312918551088382E-004	-4.550304946524295E-002	2.99899707883158	
13.5992278102709	0.0	0.0	-10.7534634974554	10.6543760014049	0.0	3.312918551159489E-004	-4.482321990532049E-002	2.99900731664801	
13.3864075925426	0.0	0.0	-10.7416894259837	10.9552793648464	0.0	3.312918551164556E-004	-4.418725454248082E-002	2.99901675435249	
15.3109940406697	0.0	0.0	-9.66476173571458	9.56809785086117	0.0	3.284701078216691E-004	-5.368574729204893E-002	2.99886782619473	
12.6281801701454	0.0	0.0	-4.75655402800962	7.81273724350086	0.0	3.256227151624050E-004	-4.299461258144808E-002	2.99904076544334	
11.0287152717119	0.0	0.0	-5.37241587481296	8.14933447314910	0.0	5.601327456018400E-007	8.001239139200426E-004	2.99999985818769	
11.0660583357781	0.0	0.0	-5.38008879916551	8.13960014957139	0.0	5.601327449586480E-007	8.007616759925960E-004	2.99999985801753	
11.3539419849493	0.0	0.0	-4.55771470748199	7.98634042216082	0.0	2.124016516864760E-008	3.472033691206668E-005	2.99999999978556	
11.3362471006781	0.0	0.0	-4.54827312770267	8.13647215826064	0.0	2.124016486062616E-008	3.455475728025294E-005	2.99999999978747	
11.3338385425286	0.0	0.0	-4.67180541968307	8.10208691456731	0.0	2.124016530344118E-008	3.481016059826520E-005	2.99999999978452	
11.3117843109393	0.0	0.0	-4.57695781840617	8.00667483095624	0.0	2.974333446864368E-008	1.731006180403263E-005	2.99999999993791	
11.3350449226256	0.0	0.0	-4.62467175387427	8.00241989083657	0.0	2.974333388891730E-008	1.734294767188273E-005	2.99999999993772	
11.3450549880889	0.0	0.0	-4.65301644310278	7.99143603583278	0.0	2.974333445271264E-008	1.737513008871153E-005	2.99999999993754	
11.4122935682791	0.0	0.0	-4.51925329455573	7.95184906640343	0.0	2.974486027553040E-008	1.416718889125082E-005	2.99999999995284	
11.4665066294790	0.0	0.0	-4.54119220190041	7.96230052362608	0.0	2.974486095958910E-008	1.416722711792711E-005	2.99999999995284	
11.5118374952894	0.0	0.0	-4.58069213367158	7.97537609056183	0.0	2.974485951456672E-008	1.421200723603636E-005	2.99999999995262	
11.5350695866360	0.0	0.0	-4.62629034295411	7.96389840075589	0.0	2.974486116792655E-008	1.425683599343596E-005	2.99999999995241	
11.5509092719216	0.0	0.0	-4.65129348180308	7.94043727804416	0.0	2.974486267923266E-008	1.428579532939412E-005	2.99999999995227	
11.5552097261455	0.0	0.0	-4.64328803706161	7.91681853604459	0.0	2.974486277942222E-008	1.428580903723083E-005	2.99999999995227	
11.5492265493044	0.0	0.0	-4.61139264584188	7.90989245211667	0.0	2.974486019619081E-008	1.426743078982779E-005	2.99999999995236	
11.5538348551155	0.0	0.0	-4.56430405506913	7.94269533321530	0.0	2.974486107269336E-008	1.421202394274018E-005	2.99999999995262	
11.5556527363216	0.0	0.0	-4.53170152885869	7.95581988112193	0.0	2.974485972254166E-008	1.416722818035309E-005	2.99999999995283	
11.5593185795673	0.0	0.0	-4.53110182502020	7.93726521444762	0.0	2.974486003687907E-008	1.421195525898274E-005	2.99999999995262	
11.5398056343391	0.0	0.0	-4.56781331178363	7.87119698274542	0.0	2.109037965370340E-009	8.280396380258850E-006	2.99999999997767	
12.2933537239855	0.0	0.0	-3.71610006692876	7.70828828598376	0.0	-3.311447397121877E-007	-7.513268536495953E-006	2.99999999467231	
12.0101178913430	0.0	0.0	-3.66419340647649	7.35876523929393	0.0	-3.311447397490233E-007	-7.564284315635991E-006	2.99999999467219	
12.0310461411827	0.0	0.0	-3.55372565636498	7.47756900868267	0.0	-3.311447401989938E-007	-7.491212904908014E-006	2.99999999467237	
12.1526979498731	0.0	0.0	-3.48103988649864	7.71254758460996	0.0	-3.311447401974362E-007	-7.417021294763950E-006	2.99999999467255	
12.4576033830256	0.0	0.0	-3.49821037545734	7.87184850330201	0.0	-3.311447393563764E-007	-7.395873231601338E-006	2.99999999467260	
12.6959102027077	0.0	0.0	-3.70789336937711	7.63421572111972	0.0	-3.311447403242209E-007	-7.524661599193152E-006	2.99999999467228	
12.8238558325270	0.0	0.0	-4.17217801692716	7.55446012955047	0.0	-3.311447397013629E-007	-7.750184450245651E-006	2.99999999467171	
12.8984297871856	0.0	0.0	-4.57633759504535	7.72296205673692	0.0	-3.311447411612497E-007	-7.895842600445872E-006	2.99999999467133	
13.0063052500456	0.0	0.0	-4.58243823241115	7.65607515989600	0.0	-3.311447394314380E-007	-7.918028740012617E-006	2.99999999467127	
13.0616681764314	0.0	0.0	-4.39515641875472	7.80557841340207	0.0	-3.311447388350844E-007	-7.788230166489764E-006	2.99999999467161	
13.0333163801599	0.0	0.0	-4.15585600925345	7.88728214625671	0.0	-3.311447399762120E-007	-7.661417148067487E-006	2.99999999467193	
13.2032713329937	0.0	0.0	-3.76634257957294	8.06480587078404	0.0	-3.311447402662185E-007	-7.464733651772902E-006	2.99999999467243	
12.8890161520858	0.0	0.0	-4.14112518718152	7.45536922007079	0.0	-3.361653296373051E-007	-3.654643196240067E-006	2.99999999468099	
12.3812782284582	0.0	0.0	-5.27488512103388	7.61847838657709	0.0	-2.994467723876374E-007	-1.300514667006982E-004	2.99999999293688	
12.6075340991739	0.0	0.0	-5.45074533925566	7.70849212701880	0.0	-2.994467721707171E-007	-1.309572545358948E-004	2.99999999289747	
13.2977659021310	0.0	0.0	-5.16264201630035	7.71450848888467	0.0	-2.089919044814515E-007	-1.475373965180437E-004	2.99999999409576	
13.3192078773250	0.0	0.0	-5.20592559068817	7.77654194607770	0.0	-2.089919071439686E-007	-1.475531119540128E-004	2.99999999409499	
13.2479637570313	0.0	0.0	-5.11340288424157	7.73054486488645	0.0	-2.089919062112561E-007	-1.470094225636875E-004	2.99999999412168	
11.5151992145174	0.0	0.0	-4.60561090165386	7.90335440709665	0.0	-2.373916141456286E-009	3.685851460983853E-007	2.99999999999987	
11.4812181794808	0.0	0.0	-4.62933457947251	7.87622703845871	0.0	-2.373915714647385E-009	3.685829099252510E-007	2.99999999999987	
11.4079317772411	0.0	0.0	-4.60515196863865	7.84688550212667	0.0	-2.373915248330710E-009	3.685833303133325E-007	2.99999999999987	
11.3519958532757	0.0	0.0	-4.52154926637913	7.85092019186358	0.0	-2.373915723006733E-009	3.685885377942685E-007	2.99999999999986	
11.3163413043310	0.0	0.0	-4.42446972726340	7.84586448231791	0.0	-2.373916788937418E-009	3.685943101188832E-007	2.99999999999986	
11.3764969912994	0.0	0.0	-4.51261970522741	7.84349893154429	0.0	-2.373926599491186E-009	3.685875172860924E-007	2.99999999999986	
11.4943610077764	0.0	0.0	-4.59880439274162	7.92431657083188	0.0	-2.373911943514440E-009	3.685859025694972E-007	2.99999999999987	
11.3690271974247	0.0	0.0	-4.53405428878044	7.83075189981533	0.0	-2.373927381552346E-009	3.685859831484265E-007	2.99999999999986	
11.3937601934829	0.0	0.0	-4.53596957244030	7.81872683437480	0.0	-2.373929141492908E-009	3.685854672127432E-007	2.99999999999986	
11.4115785929610	0.0	0.0	-4.53505167553037	7.82097199255759	0.0	-2.373929372133579E-009	3.685855954774128E-007	2.99999999999986	
11.4177510716485	0.0	0.0	-4.53492545393490	7.82762621934337	0.0	-2.373928708355514E-009	3.685858312744858E-007	2.99999999999986	
11.4114680125898	0.0	0.0	-4.53779979853780	7.83127228273791	0.0	-2.373929316051741E-009	3.685857844479072E-007	2.99999999999986	
11.4033138308577	0.0	0.0	-4.54151930293991	7.83286174422986	0.0	-2.373928359560011E-009	3.685856285025755E-007	2.99999999999986	
11.3987106973757	0.0	0.0	-4.54457357791610	7.84320798186052	0.0	-2.373927984624136E-009	3.685858003804804E-007	2.99999999999986	
11.3967684274482	0.0	0.0	-4.54833759244517	7.84693477636463	0.0	-2.373927370360019E-009	3.685857098480764E-007	2.99999999999986	
13.9276168760348	0.0	0.0	2.05105822965492	8.05899540602639	0.0	-4.194721989444230E-007	-3.737248852899398E-004	2.99999996928119	
13.7403254950058	0.0	0.0	2.22711504014559	7.79955895540208	0.0	-4.194722000931553E-007	-3.766428911922497E-004	2.99999996891626	
13.7394303016360	0.0	0.0	2.91853899088898	8.12616429423165	0.0	-4.194721996010628E-007	-3.847891178332231E-004	2.99999996788246	
13.8982047251190	0.0	0.0	3.58715554321556	8.12362684023340	0.0	-4.194721997267968E-007	-3.958453288701044E-004	2.99999996644398	
14.4236744000356	0.0	0.0	3.84387288931163	8.08310531947192	0.0	-4.194722000617721E-007	-4.009608280197572E-004	2.99999996576463	
14.7424734881834	0.0	0.0	3.88733124811079	7.88585020725866	0.0	-4.194721999655566E-007	-4.037018003471398E-004	2.99999996539704	
14.9161148373291	0.0	0.0	3.90924506262416	8.10580534938973	0.0	-4.194722001701506E-007	-4.020116037073370E-004	2.99999996562401	
15.0572078328511	0.0	0.0	3.96019199558752	8.30602911940381	0.0	-4.194722003929319E-007	-4.011536077046632E-004	2.99999996573886	
15.3211281469823	0.0	0.0	3.94721662694029	8.20493914354178	0.0	-4.194721998038494E-007	-4.018235814086872E-004	2.99999996564919	
14.0508142852748	0.0	0.0	3.54344290023104	7.55095352001814	0.0	-4.168674632308641E-007	-4.000117457619659E-004	2.99999996589135	
13.8972614008460	0.0	0.0	0.971643503463182	8.04774895917519	0.0	-4.168224015640514E-007	-3.648529168291649E-004	2.99999997037332	
15.4694861026178	0.0	0.0	4.30935914451439	8.33578405368966	0.0	-4.163588964701979E-007	-4.075992136045255E-004	2.99999996487012	
15.4620954824439	0.0	0.0	4.62739110254736	8.41690448740314	0.0	-4.163588940256275E-007	-4.131775619737219E-004	2.99999996410702	
12.8614914273692	0.0	0.0	3.52856711934131	8.90780820427719	0.0	-4.164841968584690E-007	-3.894727450454366E-004	2.99999996727820	
12.9392435438808	0.0	0.0	3.47188716937002	8.89178151181226	0.0	-4.164841954359789E-007	-3.887246078674672E-004	2.99999996737524	
13.0102460813409	0.0	0.0	3.20251283955651	9.07319172015369	0.0	-4.164841948733742E-007	-3.840082831390925E-004	2.99999996798265	
13.0410589927644	0.0	0.0	3.02180651243526	9.22008952801896	0.0	-4.164841939897649E-007	-3.810750264076451E-004	2.99999996835668	
14.0373245240415	0.0	0.0	1.08702902690935	7.92651540933973	0.0	-4.158241480879524E-007	-3.654057614778912E-004	2.99999997030630	
11.4165646323258	0.0	0.0	-4.52270704277229	7.94693538804996	0.0	-6.771418193109370E-009	-4.566175060965607E-006	2.99999999998651	
11.4060369669371	0.0	0.0	-4.57038774457861	7.93619195767975	0.0	-6.771414945753003E-009	-4.566194798819974E-006	2.99999999998651	
11.4353441370854	0.0	0.0	-4.57147999817500	7.91324235387303	0.0	-6.771416875817749E-009	-4.566199975143520E-006	2.99999999998651	
11.4384647956371	0.0	0.0	-4.53165294551607	7.89620903604274	0.0	-6.771415293460876E-009	-4.566189833522889E-006	2.99999999998651	
11.3894281904738	0.0	0.0	-4.47781359180644	7.92432122338503	0.0	-6.771413826815234E-009	-4.566166953510400E-006	2.99999999998651	
11.4745256085038	0.0	0.0	-4.48147447484288	7.93970486817260	0.0	-6.771423471220446E-009	-4.566163211079893E-006	2.99999999998651	
11.4483102346643	0.0	0.0	-4.49922948376779	7.94269701670176	0.0	-6.771425436552653E-009	-4.566168952737640E-006	2.99999999998651	
11.4481097037153	0.0	0.0	-4.58555372443467	7.99138259205770	0.0	1.027259800028729E-008	-8.026649713773693E-006	2.99999999998599	
11.4305361777785	0.0	0.0	-4.54386985055730	7.98093025093038	0.0	1.027259756153534E-008	-8.026643536284004E-006	2.99999999998599	
11.4276687970333	0.0	0.0	-4.51404915819350	7.97691639769865	0.0	1.027259704931123E-008	-8.026638651944928E-006	2.99999999998599	
11.4550958655441	0.0	0.0	-4.50549517250251	7.98380785734564	0.0	1.027259674868743E-008	-8.026636369968156E-006	2.99999999998599	
11.4986496776323	0.0	0.0	-4.51660394036317	7.97656406773119	0.0	1.027259546244624E-008	-8.026639422615014E-006	2.99999999998599	
11.4762465917206	0.0	0.0	-4.49915053621136	8.00966199305090	0.0	6.436149058909325E-009	-2.159624967585947E-006	2.99999999999834	
11.4603970058261	0.0	0.0	-4.49416832828022	7.99708127199401	0.0	6.436151663085341E-009	-2.159625160545649E-006	2.99999999999834	
11.4562101237714	0.0	0.0	-4.48432721177884	7.97876641900416	0.0	6.436153084682500E-009	-2.159625198444678E-006	2.99999999999834	
11.3730967566798	0.0	0.0	-4.49679513573383	7.95551508313308	0.0	6.436170452817368E-009	-2.159626915304884E-006	2.99999999999836	
11.3739019051763	0.0	0.0	-4.46944403760780	7.96624098278037	0.0	6.436171871066023E-009	-2.159623836753699E-006	2.99999999999836	
11.3652600029777	0.0	0.0	-4.44597773901260	7.96965232045285	0.0	6.436152204255576E-009	-2.159621466698012E-006	2.99999999999836	
11.3566870099875	0.0	0.0	-4.43209929924909	7.97194560020807	0.0	6.436171615851056E-009	-2.159620024416221E-006	2.99999999999836	
11.3544415094135	0.0	0.0	-4.42966268879947	7.97665993130873	0.0	6.436171954009085E-009	-2.159619527034718E-006	2.99999999999836	
11.3579984324476	0.0	0.0	-4.44001909668523	7.97553854804875	0.0	6.436172054740321E-009	-2.159620613363450E-006	2.99999999999836	
11.3677990490444	0.0	0.0	-4.45814328836042	7.96814395900372	0.0	6.436170825916548E-009	-2.159622848437277E-006	2.99999999999836	
11.3874309370193	0.0	0.0	-4.47545269374702	7.96642220696459	0.0	6.436171704536420E-009	-2.159624666672766E-006	2.99999999999836	
11.4159411653843	0.0	0.0	-4.48664616806701	7.97272001522397	0.0	6.436174372587574E-009	-2.159625412662268E-006	2.99999999999836	
11.4414005858673	0.0	0.0	-4.48991737019405	7.97618550993704	0.0	6.436175962891965E-009	-2.159625532977910E-006	2.99999999999836	
11.4532838175879	0.0	0.0	-4.48805485731019	7.96870108290449	0.0	6.436174788373983E-009	-2.159625763277710E-006	2.99999999999836	
11.4541141065903	0.0	0.0	-4.48206249029549	7.95835272206647	0.0	6.436175652070763E-009	-2.159625750414408E-006	2.99999999999836	
11.4479353437571	0.0	0.0	-4.47363630887652	7.95362905003022	0.0	6.436175148931021E-009	-2.159625198906934E-006	2.99999999999836	
11.4319998883329	0.0	0.0	-4.46560215387356	7.94999128000080	0.0	6.436172944531211E-009	-2.159624623487160E-006	2.99999999999836	
13.5343231032224	0.0	0.0	-6.62523025886766	8.06075002739177	0.0	4.752914848618672E-005	3.561546993364459E-002	2.99975333399727	
13.4067334484254	0.0	0.0	-6.68411316240414	7.83982978873365	0.0	4.752914848580025E-005	3.615806472247281E-002	2.99974684279888	
13.4038000336742	0.0	0.0	-6.48520449904842	7.65489165100298	0.0	4.752914848509020E-005	3.606193470839456E-002	2.99974799998123	
13.5179070968439	0.0	0.0	-6.05058397184794	7.67955536377724	0.0	4.752914848583835E-005	3.502743382557290E-002	2.99976025798828	
13.5377005911589	0.0	0.0	-5.56314451086037	7.47734664194738	0.0	4.752914848712076E-005	3.429204309489508E-002	2.99976875480539	
13.5277454087953	0.0	0.0	-5.31468781376839	7.24673020616390	0.0	4.752914848794924E-005	3.411829829051503E-002	2.99977073594768	
13.4912182632906	0.0	0.0	-5.43939085161092	7.03968745837854	0.0	4.752914848963097E-005	3.476960167334187E-002	2.99976325754646	
13.5071474435329	0.0	0.0	-5.79557874992156	6.99938878409683	0.0	4.752914849042915E-005	3.572244448043074E-002	2.99975206200223	
13.6619750989388	0.0	0.0	-6.06420256535230	7.33209228283981	0.0	4.752914849139578E-005	3.570600874630243E-002	2.99975225768157	
13.8920833346635	0.0	0.0	-6.18234339200824	7.41833988618982	0.0	4.752914849268737E-005	3.581708317881745E-002	2.99975093350745	
14.3847650420074	0.0	0.0	-6.32508239341357	7.52663591583194	0.0	4.752914849187726E-005	3.594041901029271E-002	2.99974945833942	
14.6896932705978	0.0	0.0	-6.75671072732115	7.31613214810499	0.0	4.752914849212144E-005	3.745605921849018E-002	2.99973091629134	
12.0560260668210	0.0	0.0	-4.97629000420890	7.89673579789086	0.0	4.752914847635290E-005	3.251628687846880E-002	2.99978852881567	
12.0850629914534	0.0	0.0	-5.10764646303567	8.07318508314080	0.0	4.752914847831324E-005	3.255305430131757E-002	2.99978813004887	
12.0955107835093	0.0	0.0	-5.36418052735586	8.02602926581153	0.0	4.752914847936433E-005	3.308943766311844E-002	2.99978226137191	
12.1306293681582	0.0	0.0	-5.62925159545822	8.08561855073231	0.0	4.752914848023870E-005	3.352225472467413E-002	2.99977745590646	
11.9056091355177	0.0	0.0	-6.26080351827328	7.54127986046055	0.0	1.788452484366914E-005	1.881603457227145E-004	2.99998734676939	
11.2625809497760	0.0	0.0	-4.46373309715502	7.97724225680366	0.0	-1.000297582301451E-010	-9.757267803701702E-006	2.99999999997644	
11.3075887683097	0.0	0.0	-4.47168063945331	7.96736686048165	0.0	-1.000303140122889E-010	-9.757281292273887E-006	2.99999999997644	
11.4054564125256	0.0	0.0	-4.54968144070260	8.02696512436586	0.0	-1.000312064857302E-010	-9.757325872074032E-006	2.99999999997644	
11.4710435734213	0.0	0.0	-4.58536651475125	7.99059901523501	0.0	-1.000297141817535E-010	-9.757382913227427E-006	2.99999999997644	
11.5023192452336	0.0	0.0	-4.48362097807575	7.96044374424100	0.0	-1.000398977461890E-010	-9.757272597469676E-006	2.99999999997644	
11.3504729548122	0.0	0.0	-4.46318821938991	8.01287607830204	0.0	1.236600187904415E-009	-5.024190536188191E-006	2.99999999999191	
11.1845604411249	0.0	0.0	-4.32047255179771	7.97402807180982	0.0	1.236595026532621E-009	-4.979502711147704E-006	2.99999999999198	
11.2171731970159	0.0	0.0	-4.34470230323900	7.95897939253429	0.0	1.236596361174968E-009	-5.024201141320193E-006	2.99999999999190	
11.2720101279964	0.0	0.0	-4.40127068160145	7.95101647109011	0.0	1.236595650693754E-009	-5.024192288386951E-006	2.99999999999190	
11.3247697915937	0.0	0.0	-4.48936427839407	7.98810527015326	0.0	1.236597272613230E-009	-5.024168591269042E-006	2.99999999999190	
11.3308794746645	0.0	0.0	-4.49709162884814	7.96148396785861	0.0	1.236595411367742E-009	-5.024165029550026E-006	2.99999999999190	
11.3425420888181	0.0	0.0	-4.51608948250312	7.94703119528687	0.0	1.236595419104750E-009	-5.024160817479013E-006	2.99999999999190	
11.3594917588519	0.0	0.0	-4.53907902940229	7.95975112735680	0.0	1.236594472177318E-009	-5.024158331147814E-006	2.99999999999190	
11.3759314207490	0.0	0.0	-4.55707163745902	7.98946768061663	0.0	1.236595285964971E-009	-5.024158167599192E-006	2.99999999999190	
11.3824724744822	0.0	0.0	-4.56756674122153	8.01260203401239	0.0	1.236596914912411E-009	-5.024158616161381E-006	2.99999999999190	
11.3804040396824	0.0	0.0	-4.56268860361977	8.02295047558985	0.0	1.236595590452629E-009	-5.024160425954992E-006	2.99999999999190	
11.3518868285401	0.0	0.0	-4.50915864231169	8.00119861297581	0.0	2.025982057275647E-010	-4.695176689997283E-006	2.99999999999243	
11.3489645037602	0.0	0.0	-4.52233476351822	8.00364150632661	0.0	2.025977504913141E-010	-4.695175127456792E-006	2.99999999999243	
11.3417308467038	0.0	0.0	-4.52677246317643	7.99374491300088	0.0	2.025983464162996E-010	-4.695173792859294E-006	2.99999999999243	
11.3221864974484	0.0	0.0	-4.50105596799981	7.99737583705424	0.0	2.025831849830584E-010	-4.695175564698134E-006	2.99999999999243	
11.3347449060486	0.0	0.0	-4.49450581995617	7.98389072302120	0.0	2.025857503468252E-010	-4.695175422884836E-006	2.99999999999243	
11.3469905504088	0.0	0.0	-4.49339884449814	7.96546747324151	0.0	2.025854760292882E-010	-4.695174186031513E-006	2.99999999999243	
11.3575563788729	0.0	0.0	-4.50194784146388	7.94773784079020	0.0	2.025866209900631E-010	-4.695171773715403E-006	2.99999999999243	
11.3670453596532	0.0	0.0	-4.52094530880422	7.94220401942844	0.0	2.025863854991958E-010	-4.695168924131204E-006	2.99999999999243	
13.3243950435665	0.0	0.0	-5.31354609042332	7.42029638392638	0.0	-3.428016576992572E-005	6.212288407111472E-002	2.99934430310185	
13.1676023934443	0.0	0.0	-5.28722580844894	7.18330127973906	0.0	-3.428016576986697E-005	6.271477859287942E-002	2.99933198526286	
13.1220154709670	0.0	0.0	-5.31716105117244	7.11884849503810	0.0	-3.428016577014603E-005	6.304151182041358E-002	2.99932513560338	
12.9467976176991	0.0	0.0	-5.38054710942608	7.05747919317033	0.0	-3.428016577008728E-005	6.351202748008973E-002	2.99931520911694	
12.6481757532025	0.0	0.0	-5.33325342339050	7.17358914488343	0.0	-3.428016577092263E-005	6.293727724494395E-002	2.99932732465261	
12.4242877972797	0.0	0.0	-5.17207268982306	7.49093560085949	0.0	-3.428016576973845E-005	6.137856346370242E-002	2.99935962719077	
12.3883497708281	0.0	0.0	-5.02522456689911	7.48025503904819	0.0	-3.428016577077943E-005	6.084884555125825E-002	2.99937042048325	
12.7003563813276	0.0	0.0	-4.97493346880812	7.13972753062808	0.0	-3.428016577106217E-005	6.156126612434391E-002	2.99935588281684	
11.9800675342245	0.0	0.0	-4.49604841975556	7.65189102237538	0.0	-3.496727949255845E-005	5.910444642487286E-002	2.99940536842129	
12.1741702848552	0.0	0.0	-4.62086208001312	7.52174437998737	0.0	-3.496727949251439E-005	5.980614613028126E-002	2.99939145904410	
12.3597502906278	0.0	0.0	-4.73675491894146	7.23473928181307	0.0	-3.496727949147707E-005	6.090773983138106E-002	2.99936929152285	
12.6866103200142	0.0	0.0	-4.70385227790804	7.38089374999302	0.0	-3.496727949117965E-005	6.042642625567230E-002	2.99937902685066	
12.7144530410957	0.0	0.0	-4.79689892975835	7.41042038267865	0.0	-3.496727949175063E-005	6.070203289578395E-002	2.99937346172562	
13.2725803995176	0.0	0.0	-4.96490235132594	7.35354414685161	0.0	-3.562878712247366E-005	6.233369108860523E-002	2.99934012046618	
13.2229937712370	0.0	0.0	-5.02153509650224	7.45007361555582	0.0	-3.562878712332921E-005	6.230059669893576E-002	2.99934080806662	
13.0093934017511	0.0	0.0	-5.14941427497692	7.37479217115207	0.0	-3.562878712280780E-005	6.300789821008217E-002	2.99932603296906	
13.3473637275997	0.0	0.0	-5.42533003835727	7.32049552435341	0.0	-2.341471187505208E-005	3.920672991771921E-002	2.99973650565218	
13.3548259292821	0.0	0.0	-5.12821308007632	7.12330480657820	0.0	-2.341471187553034E-005	3.881324595054328E-002	2.99974162269886	
11.3352653011605	0.0	0.0	-4.71932117549904	7.97080536179463	0.0	-2.827792063200534E-008	-4.730425515025271E-005	2.99999999965548	
11.3687205133027	0.0	0.0	-4.72431875899552	7.95585024444245	0.0	-2.827792162856521E-008	-4.734519035661577E-005	2.99999999965483	
11.3625066101889	0.0	0.0	-4.76498991853247	7.94356813202252	0.0	-2.827792031939238E-008	-4.746763573791873E-005	2.99999999965289	
11.3452753443002	0.0	0.0	-4.79305731997477	7.93819778893641	0.0	-2.827792076653693E-008	-4.754140938674207E-005	2.99999999965172	
11.3382625190595	0.0	0.0	-4.78525910597882	7.93523923253466	0.0	-2.827792039589782E-008	-4.752305705507881E-005	2.99999999965201	
11.3387782013503	0.0	0.0	-4.76783245807903	7.91914262788518	0.0	-2.827792163504995E-008	-4.751245486683758E-005	2.99999999965218	
11.3421297965656	0.0	0.0	-4.76997888330185	7.92051947696580	0.0	-2.827792190273689E-008	-4.751246327311922E-005	2.99999999965218	
11.3490839716699	0.0	0.0	-4.78792787111237	7.95448023925073	0.0	-2.827792087298461E-008	-4.750046906777368E-005	2.99999999965237	
11.3510957563446	0.0	0.0	-4.80659721183550	7.97783588311565	0.0	-2.827792082501657E-008	-4.751247681749696E-005	2.99999999965218	
11.3577326907700	0.0	0.0	-4.80060064279727	7.97072424774863	0.0	-2.827792043587685E-008	-4.751246594148067E-005	2.99999999965218	
11.3829494370227	0.0	0.0	-4.70718275834854	7.92987583213023	0.0	-2.827822296962514E-008	-2.519847791500338E-005	2.99999999984066	
11.4183170677312	0.0	0.0	-4.76365507272037	7.91556909303911	0.0	-2.827822259048929E-008	-2.528810225162528E-005	2.99999999983990	